<?xml version="1.0" encoding="UTF-8"?>

<!-- generated on 2022-03-14 21:07:27 by Eclipse SUMO GUI Version v1_12_0+1369-6805e597843
<configuration xmlns:xsi="http://www.w3.org/2001/XMLSchema-instance" xsi:noNamespaceSchemaLocation="http://sumo.dlr.de/xsd/sumoConfiguration.xsd">

    <input>
        <net-file value="f_road.net.xml"/>
        <route-files value="f_road.rou.xml"/>
    </input>

    <output>
        <tripinfo-output value="tripinfo.xml"/>
    </output>

    <time>
        <begin value="0"/>
    </time>

    <report>
        <verbose value="true"/>
        <no-step-log value="true"/>
    </report>

    <traci_server>
        <remote-port value="57299"/>
    </traci_server>

</configuration>
-->

<tripinfos xmlns:xsi="http://www.w3.org/2001/XMLSchema-instance" xsi:noNamespaceSchemaLocation="http://sumo.dlr.de/xsd/tripinfo_file.xsd">
    <tripinfo id="31_1" depart="0.00" departLane="e3_0" departPos="5.10" departSpeed="0.00" departDelay="0.00" arrival="64.00" arrivalLane="-e1_0" arrivalPos="314.60" arrivalSpeed="12.86" duration="64.00" routeLength="633.13" waitingTime="0.00" waitingCount="0" stopTime="0.00" timeLoss="14.31" rerouteNo="0" devices="tripinfo_31_1" vType="car" speedFactor="0.94" vaporized=""/>
    <tripinfo id="14_2" depart="5.00" departLane="e1_0" departPos="5.10" departSpeed="0.00" departDelay="3.00" arrival="67.00" arrivalLane="e4_0" arrivalPos="314.60" arrivalSpeed="13.92" duration="62.00" routeLength="633.13" waitingTime="0.00" waitingCount="0" stopTime="0.00" timeLoss="16.12" rerouteNo="0" devices="tripinfo_14_2" vType="car" speedFactor="1.01" vaporized=""/>
    <tripinfo id="23_14" depart="18.00" departLane="-e2_0" departPos="5.10" departSpeed="0.00" departDelay="0.00" arrival="81.00" arrivalLane="-e3_0" arrivalPos="314.60" arrivalSpeed="13.40" duration="63.00" routeLength="633.13" waitingTime="0.00" waitingCount="0" stopTime="0.00" timeLoss="16.37" rerouteNo="0" devices="tripinfo_23_14" vType="car" speedFactor="0.99" vaporized=""/>
    <tripinfo id="14_11" depart="20.00" departLane="e1_0" departPos="5.10" departSpeed="0.00" departDelay="7.00" arrival="82.00" arrivalLane="e4_0" arrivalPos="314.60" arrivalSpeed="13.88" duration="62.00" routeLength="633.13" waitingTime="0.00" waitingCount="0" stopTime="0.00" timeLoss="17.16" rerouteNo="0" devices="tripinfo_14_11" vType="car" speedFactor="1.03" vaporized=""/>
    <tripinfo id="24_3" depart="2.00" departLane="-e2_0" departPos="5.10" departSpeed="0.00" departDelay="0.00" arrival="89.00" arrivalLane="e4_1" arrivalPos="314.60" arrivalSpeed="14.78" duration="87.00" routeLength="643.45" waitingTime="18.00" waitingCount="1" stopTime="0.00" timeLoss="43.19" rerouteNo="0" devices="tripinfo_24_3" vType="car" speedFactor="1.08" vaporized=""/>
    <tripinfo id="13_0" depart="0.00" departLane="e1_0" departPos="5.10" departSpeed="0.00" departDelay="0.00" arrival="91.00" arrivalLane="-e3_0" arrivalPos="314.60" arrivalSpeed="14.38" duration="91.00" routeLength="643.45" waitingTime="21.00" waitingCount="1" stopTime="0.00" timeLoss="45.79" rerouteNo="0" devices="tripinfo_13_0" vType="car" speedFactor="1.06" vaporized=""/>
    <tripinfo id="24_21" depart="24.00" departLane="-e2_0" departPos="5.10" departSpeed="0.00" departDelay="0.00" arrival="94.00" arrivalLane="e4_1" arrivalPos="314.60" arrivalSpeed="13.71" duration="70.00" routeLength="643.45" waitingTime="0.00" waitingCount="0" stopTime="0.00" timeLoss="23.31" rerouteNo="0" devices="tripinfo_24_21" vType="car" speedFactor="1.01" vaporized=""/>
    <tripinfo id="13_7" depart="10.00" departLane="e1_0" departPos="5.10" departSpeed="0.00" departDelay="4.00" arrival="95.00" arrivalLane="-e3_0" arrivalPos="314.60" arrivalSpeed="12.20" duration="85.00" routeLength="643.45" waitingTime="11.00" waitingCount="1" stopTime="0.00" timeLoss="31.51" rerouteNo="0" devices="tripinfo_13_7" vType="car" speedFactor="0.89" vaporized=""/>
    <tripinfo id="24_5" depart="7.00" departLane="-e2_0" departPos="5.10" departSpeed="0.00" departDelay="2.00" arrival="96.00" arrivalLane="e4_0" arrivalPos="314.60" arrivalSpeed="11.25" duration="89.00" routeLength="643.45" waitingTime="10.00" waitingCount="1" stopTime="0.00" timeLoss="31.87" rerouteNo="0" devices="tripinfo_24_5" vType="car" speedFactor="0.83" vaporized=""/>
    <tripinfo id="13_8" depart="15.00" departLane="e1_0" departPos="5.10" departSpeed="0.00" departDelay="8.00" arrival="96.00" arrivalLane="-e3_1" arrivalPos="314.60" arrivalSpeed="12.94" duration="81.00" routeLength="643.45" waitingTime="7.00" waitingCount="1" stopTime="0.00" timeLoss="30.13" rerouteNo="0" devices="tripinfo_13_8" vType="car" speedFactor="0.94" vaporized=""/>
    <tripinfo id="13_17" depart="30.00" departLane="e1_0" departPos="5.10" departSpeed="0.00" departDelay="9.00" arrival="98.00" arrivalLane="-e3_0" arrivalPos="314.60" arrivalSpeed="13.02" duration="68.00" routeLength="643.45" waitingTime="0.00" waitingCount="0" stopTime="0.00" timeLoss="17.72" rerouteNo="0" devices="tripinfo_13_17" vType="car" speedFactor="0.94" vaporized=""/>
    <tripinfo id="13_24" depart="35.00" departLane="e1_0" departPos="5.10" departSpeed="0.00" departDelay="8.00" arrival="104.00" arrivalLane="-e3_0" arrivalPos="314.60" arrivalSpeed="11.17" duration="69.00" routeLength="643.45" waitingTime="0.00" waitingCount="0" stopTime="0.00" timeLoss="11.12" rerouteNo="0" devices="tripinfo_13_24" vType="car" speedFactor="0.83" vaporized=""/>
    <tripinfo id="13_36" depart="49.00" departLane="e1_0" departPos="5.10" departSpeed="0.00" departDelay="0.00" arrival="111.00" arrivalLane="-e3_0" arrivalPos="314.60" arrivalSpeed="13.37" duration="62.00" routeLength="643.45" waitingTime="0.00" waitingCount="0" stopTime="0.00" timeLoss="12.51" rerouteNo="0" devices="tripinfo_13_36" vType="car" speedFactor="0.97" vaporized=""/>
    <tripinfo id="23_40" depart="57.00" departLane="-e2_0" departPos="5.10" departSpeed="0.00" departDelay="0.00" arrival="118.00" arrivalLane="-e3_0" arrivalPos="314.60" arrivalSpeed="14.24" duration="61.00" routeLength="633.13" waitingTime="0.00" waitingCount="0" stopTime="0.00" timeLoss="15.72" rerouteNo="0" devices="tripinfo_23_40" vType="car" speedFactor="1.03" vaporized=""/>
    <tripinfo id="13_43" depart="65.00" departLane="e1_0" departPos="5.10" departSpeed="0.00" departDelay="3.00" arrival="125.00" arrivalLane="-e3_1" arrivalPos="314.60" arrivalSpeed="14.14" duration="60.00" routeLength="643.45" waitingTime="0.00" waitingCount="0" stopTime="0.00" timeLoss="13.84" rerouteNo="0" devices="tripinfo_13_43" vType="car" speedFactor="1.04" vaporized=""/>
    <tripinfo id="13_50" depart="73.00" departLane="e1_0" departPos="5.10" departSpeed="0.00" departDelay="0.00" arrival="140.00" arrivalLane="-e3_0" arrivalPos="314.60" arrivalSpeed="11.73" duration="67.00" routeLength="643.45" waitingTime="0.00" waitingCount="0" stopTime="0.00" timeLoss="11.34" rerouteNo="0" devices="tripinfo_13_50" vType="car" speedFactor="0.85" vaporized=""/>
    <tripinfo id="34_4" depart="5.00" departLane="e3_0" departPos="5.10" departSpeed="0.00" departDelay="3.00" arrival="147.00" arrivalLane="e4_0" arrivalPos="314.60" arrivalSpeed="14.04" duration="142.00" routeLength="644.90" waitingTime="71.00" waitingCount="1" stopTime="0.00" timeLoss="96.00" rerouteNo="0" devices="tripinfo_34_4" vType="car" speedFactor="1.03" vaporized=""/>
    <tripinfo id="43_10" depart="14.00" departLane="-e4_0" departPos="5.10" departSpeed="0.00" departDelay="3.00" arrival="148.00" arrivalLane="-e3_1" arrivalPos="314.60" arrivalSpeed="14.98" duration="134.00" routeLength="644.90" waitingTime="63.00" waitingCount="1" stopTime="0.00" timeLoss="91.21" rerouteNo="0" devices="tripinfo_43_10" vType="car" speedFactor="1.09" vaporized=""/>
    <tripinfo id="42_13" depart="24.00" departLane="-e4_0" departPos="5.10" departSpeed="0.00" departDelay="9.00" arrival="148.00" arrivalLane="e2_0" arrivalPos="314.60" arrivalSpeed="15.35" duration="124.00" routeLength="633.13" waitingTime="54.00" waitingCount="1" stopTime="0.00" timeLoss="82.21" rerouteNo="0" devices="tripinfo_42_13" vType="car" speedFactor="1.12" vaporized=""/>
    <tripinfo id="34_6" depart="10.00" departLane="e3_0" departPos="5.10" departSpeed="0.00" departDelay="5.00" arrival="149.00" arrivalLane="e4_0" arrivalPos="314.60" arrivalSpeed="14.34" duration="139.00" routeLength="644.90" waitingTime="68.00" waitingCount="1" stopTime="0.00" timeLoss="94.12" rerouteNo="0" devices="tripinfo_34_6" vType="car" speedFactor="1.05" vaporized=""/>
    <tripinfo id="43_9" depart="9.00" departLane="-e4_0" departPos="5.10" departSpeed="0.00" departDelay="0.00" arrival="150.00" arrivalLane="-e3_0" arrivalPos="314.60" arrivalSpeed="11.74" duration="141.00" routeLength="644.90" waitingTime="65.00" waitingCount="1" stopTime="0.00" timeLoss="86.23" rerouteNo="0" devices="tripinfo_43_9" vType="car" speedFactor="0.86" vaporized=""/>
    <tripinfo id="31_16" depart="19.00" departLane="e3_0" departPos="5.10" departSpeed="0.00" departDelay="0.00" arrival="152.00" arrivalLane="-e1_0" arrivalPos="314.60" arrivalSpeed="11.83" duration="133.00" routeLength="633.13" waitingTime="57.00" waitingCount="1" stopTime="0.00" timeLoss="79.79" rerouteNo="0" devices="tripinfo_31_16" vType="car" speedFactor="0.88" vaporized=""/>
    <tripinfo id="34_19" depart="24.00" departLane="e3_0" departPos="5.10" departSpeed="0.00" departDelay="2.00" arrival="152.00" arrivalLane="e4_0" arrivalPos="314.60" arrivalSpeed="15.90" duration="128.00" routeLength="644.90" waitingTime="57.00" waitingCount="1" stopTime="0.00" timeLoss="87.39" rerouteNo="0" devices="tripinfo_34_19" vType="car" speedFactor="1.16" vaporized=""/>
    <tripinfo id="43_18" depart="29.00" departLane="-e4_0" departPos="5.10" departSpeed="0.00" departDelay="8.00" arrival="154.00" arrivalLane="-e3_0" arrivalPos="314.60" arrivalSpeed="12.67" duration="125.00" routeLength="644.90" waitingTime="52.00" waitingCount="2" stopTime="0.00" timeLoss="74.46" rerouteNo="0" devices="tripinfo_43_18" vType="car" speedFactor="0.94" vaporized=""/>
    <tripinfo id="42_23" depart="41.00" departLane="-e4_0" departPos="5.10" departSpeed="0.00" departDelay="15.00" arrival="156.00" arrivalLane="e2_0" arrivalPos="314.60" arrivalSpeed="12.25" duration="115.00" routeLength="633.13" waitingTime="39.00" waitingCount="1" stopTime="0.00" timeLoss="62.71" rerouteNo="0" devices="tripinfo_42_23" vType="car" speedFactor="0.89" vaporized=""/>
    <tripinfo id="31_25" depart="34.00" departLane="e3_0" departPos="5.10" departSpeed="0.00" departDelay="6.00" arrival="158.00" arrivalLane="-e1_0" arrivalPos="314.60" arrivalSpeed="11.95" duration="124.00" routeLength="633.13" waitingTime="45.00" waitingCount="1" stopTime="0.00" timeLoss="70.33" rerouteNo="0" devices="tripinfo_31_25" vType="car" speedFactor="0.87" vaporized=""/>
    <tripinfo id="43_27" depart="46.00" departLane="-e4_0" departPos="5.10" departSpeed="0.00" departDelay="16.00" arrival="158.00" arrivalLane="-e3_0" arrivalPos="314.60" arrivalSpeed="12.94" duration="112.00" routeLength="644.90" waitingTime="36.00" waitingCount="1" stopTime="0.00" timeLoss="62.20" rerouteNo="0" devices="tripinfo_43_27" vType="car" speedFactor="0.95" vaporized=""/>
    <tripinfo id="31_26" depart="39.00" departLane="e3_0" departPos="5.10" departSpeed="0.00" departDelay="9.00" arrival="159.00" arrivalLane="-e1_1" arrivalPos="314.60" arrivalSpeed="12.39" duration="120.00" routeLength="633.13" waitingTime="43.00" waitingCount="1" stopTime="0.00" timeLoss="69.49" rerouteNo="0" devices="tripinfo_31_26" vType="car" speedFactor="0.92" vaporized=""/>
    <tripinfo id="34_28" depart="44.00" departLane="e3_0" departPos="5.10" departSpeed="0.00" departDelay="12.00" arrival="159.00" arrivalLane="e4_0" arrivalPos="314.60" arrivalSpeed="15.45" duration="115.00" routeLength="644.90" waitingTime="41.00" waitingCount="1" stopTime="0.00" timeLoss="73.53" rerouteNo="0" devices="tripinfo_34_28" vType="car" speedFactor="1.13" vaporized=""/>
    <tripinfo id="43_35" depart="51.00" departLane="-e4_0" departPos="5.10" departSpeed="0.00" departDelay="3.00" arrival="159.00" arrivalLane="-e3_1" arrivalPos="314.60" arrivalSpeed="14.14" duration="108.00" routeLength="644.90" waitingTime="34.00" waitingCount="1" stopTime="0.00" timeLoss="61.50" rerouteNo="0" devices="tripinfo_43_35" vType="car" speedFactor="1.02" vaporized=""/>
    <tripinfo id="31_33" depart="64.00" departLane="e3_0" departPos="5.10" departSpeed="0.00" departDelay="23.00" arrival="160.00" arrivalLane="-e1_0" arrivalPos="314.60" arrivalSpeed="14.70" duration="96.00" routeLength="633.13" waitingTime="23.00" waitingCount="1" stopTime="0.00" timeLoss="55.54" rerouteNo="0" devices="tripinfo_31_33" vType="car" speedFactor="1.17" vaporized=""/>
    <tripinfo id="42_44" depart="63.00" departLane="-e4_0" departPos="5.10" departSpeed="0.00" departDelay="0.00" arrival="160.00" arrivalLane="e2_0" arrivalPos="314.60" arrivalSpeed="14.30" duration="97.00" routeLength="633.13" waitingTime="25.00" waitingCount="1" stopTime="0.00" timeLoss="52.00" rerouteNo="0" devices="tripinfo_42_44" vType="car" speedFactor="1.04" vaporized=""/>
    <tripinfo id="31_34" depart="70.00" departLane="e3_0" departPos="5.10" departSpeed="0.00" departDelay="22.00" arrival="164.00" arrivalLane="-e1_0" arrivalPos="314.60" arrivalSpeed="13.79" duration="94.00" routeLength="633.13" waitingTime="20.00" waitingCount="1" stopTime="0.00" timeLoss="47.65" rerouteNo="0" devices="tripinfo_31_34" vType="car" speedFactor="0.99" vaporized=""/>
    <tripinfo id="42_48" depart="73.00" departLane="-e4_0" departPos="5.10" departSpeed="0.00" departDelay="8.00" arrival="166.00" arrivalLane="e2_0" arrivalPos="314.60" arrivalSpeed="12.16" duration="93.00" routeLength="633.13" waitingTime="14.00" waitingCount="1" stopTime="0.00" timeLoss="40.10" rerouteNo="0" devices="tripinfo_42_48" vType="car" speedFactor="0.88" vaporized=""/>
    <tripinfo id="31_42" depart="80.00" departLane="e3_0" departPos="5.10" departSpeed="0.00" departDelay="20.00" arrival="167.00" arrivalLane="-e1_0" arrivalPos="314.60" arrivalSpeed="14.90" duration="87.00" routeLength="633.13" waitingTime="13.00" waitingCount="1" stopTime="0.00" timeLoss="44.19" rerouteNo="0" devices="tripinfo_31_42" vType="car" speedFactor="1.09" vaporized=""/>
    <tripinfo id="42_51" depart="83.00" departLane="-e4_0" departPos="5.10" departSpeed="0.00" departDelay="10.00" arrival="167.00" arrivalLane="e2_1" arrivalPos="314.60" arrivalSpeed="16.00" duration="84.00" routeLength="633.13" waitingTime="9.00" waitingCount="1" stopTime="0.00" timeLoss="43.89" rerouteNo="0" devices="tripinfo_42_51" vType="car" speedFactor="1.17" vaporized=""/>
    <tripinfo id="34_39" depart="75.00" departLane="e3_0" departPos="5.10" departSpeed="0.00" departDelay="22.00" arrival="168.00" arrivalLane="e4_0" arrivalPos="314.60" arrivalSpeed="12.42" duration="93.00" routeLength="644.90" waitingTime="15.00" waitingCount="1" stopTime="0.00" timeLoss="40.56" rerouteNo="0" devices="tripinfo_34_39" vType="car" speedFactor="0.90" vaporized=""/>
    <tripinfo id="31_45" depart="85.00" departLane="e3_0" departPos="5.10" departSpeed="0.00" departDelay="21.00" arrival="169.00" arrivalLane="-e1_0" arrivalPos="314.60" arrivalSpeed="14.75" duration="84.00" routeLength="633.13" waitingTime="8.00" waitingCount="1" stopTime="0.00" timeLoss="41.06" rerouteNo="0" devices="tripinfo_31_45" vType="car" speedFactor="1.09" vaporized=""/>
    <tripinfo id="42_53" depart="88.00" departLane="-e4_0" departPos="5.10" departSpeed="0.00" departDelay="10.00" arrival="169.00" arrivalLane="e2_1" arrivalPos="314.60" arrivalSpeed="15.15" duration="81.00" routeLength="633.13" waitingTime="6.00" waitingCount="1" stopTime="0.00" timeLoss="38.91" rerouteNo="0" devices="tripinfo_42_53" vType="car" speedFactor="1.10" vaporized=""/>
    <tripinfo id="42_49" depart="78.00" departLane="-e4_0" departPos="5.10" departSpeed="0.00" departDelay="8.00" arrival="170.00" arrivalLane="e2_0" arrivalPos="314.60" arrivalSpeed="11.50" duration="92.00" routeLength="633.13" waitingTime="11.00" waitingCount="1" stopTime="0.00" timeLoss="36.52" rerouteNo="0" devices="tripinfo_42_49" vType="car" speedFactor="0.85" vaporized=""/>
    <tripinfo id="31_46" depart="91.00" departLane="e3_0" departPos="5.10" departSpeed="0.00" departDelay="26.00" arrival="173.00" arrivalLane="-e1_0" arrivalPos="314.60" arrivalSpeed="13.72" duration="82.00" routeLength="633.13" waitingTime="4.00" waitingCount="1" stopTime="0.00" timeLoss="35.58" rerouteNo="0" devices="tripinfo_31_46" vType="car" speedFactor="1.00" vaporized=""/>
    <tripinfo id="43_55" depart="93.00" departLane="-e4_0" departPos="5.10" departSpeed="0.00" departDelay="10.00" arrival="173.00" arrivalLane="-e3_0" arrivalPos="314.60" arrivalSpeed="13.60" duration="80.00" routeLength="644.90" waitingTime="3.00" waitingCount="2" stopTime="0.00" timeLoss="32.65" rerouteNo="0" devices="tripinfo_43_55" vType="car" speedFactor="1.00" vaporized=""/>
    <tripinfo id="34_52" depart="96.00" departLane="e3_0" departPos="5.10" departSpeed="0.00" departDelay="21.00" arrival="175.00" arrivalLane="e4_0" arrivalPos="314.60" arrivalSpeed="13.85" duration="79.00" routeLength="644.90" waitingTime="1.00" waitingCount="1" stopTime="0.00" timeLoss="32.78" rerouteNo="0" devices="tripinfo_34_52" vType="car" speedFactor="1.02" vaporized=""/>
    <tripinfo id="43_56" depart="99.00" departLane="-e4_0" departPos="5.10" departSpeed="0.00" departDelay="14.00" arrival="176.00" arrivalLane="-e3_0" arrivalPos="314.60" arrivalSpeed="12.43" duration="77.00" routeLength="644.90" waitingTime="0.00" waitingCount="0" stopTime="0.00" timeLoss="25.10" rerouteNo="0" devices="tripinfo_43_56" vType="car" speedFactor="0.90" vaporized=""/>
    <tripinfo id="43_58" depart="104.00" departLane="-e4_0" departPos="5.10" departSpeed="0.00" departDelay="15.00" arrival="176.00" arrivalLane="-e3_1" arrivalPos="314.60" arrivalSpeed="14.20" duration="72.00" routeLength="644.90" waitingTime="0.00" waitingCount="0" stopTime="0.00" timeLoss="26.00" rerouteNo="0" devices="tripinfo_43_58" vType="car" speedFactor="1.02" vaporized=""/>
    <tripinfo id="34_54" depart="101.00" departLane="e3_0" departPos="5.10" departSpeed="0.00" departDelay="18.00" arrival="177.00" arrivalLane="e4_0" arrivalPos="314.60" arrivalSpeed="13.67" duration="76.00" routeLength="644.90" waitingTime="0.00" waitingCount="0" stopTime="0.00" timeLoss="29.04" rerouteNo="0" devices="tripinfo_34_54" vType="car" speedFactor="1.00" vaporized=""/>
    <tripinfo id="42_61" depart="109.00" departLane="-e4_0" departPos="5.10" departSpeed="0.00" departDelay="13.00" arrival="177.00" arrivalLane="e2_0" arrivalPos="314.60" arrivalSpeed="15.27" duration="68.00" routeLength="633.13" waitingTime="0.00" waitingCount="0" stopTime="0.00" timeLoss="26.22" rerouteNo="0" devices="tripinfo_42_61" vType="car" speedFactor="1.12" vaporized=""/>
    <tripinfo id="34_59" depart="106.00" departLane="e3_0" departPos="5.10" departSpeed="0.00" departDelay="15.00" arrival="179.00" arrivalLane="e4_0" arrivalPos="314.60" arrivalSpeed="13.24" duration="73.00" routeLength="644.90" waitingTime="0.00" waitingCount="0" stopTime="0.00" timeLoss="24.82" rerouteNo="0" devices="tripinfo_34_59" vType="car" speedFactor="0.97" vaporized=""/>
    <tripinfo id="34_60" depart="111.00" departLane="e3_0" departPos="5.10" departSpeed="0.00" departDelay="18.00" arrival="179.00" arrivalLane="e4_1" arrivalPos="314.60" arrivalSpeed="14.90" duration="68.00" routeLength="644.90" waitingTime="0.00" waitingCount="0" stopTime="0.00" timeLoss="24.97" rerouteNo="0" devices="tripinfo_34_60" vType="car" speedFactor="1.08" vaporized=""/>
    <tripinfo id="34_76" depart="120.00" departLane="e3_0" departPos="5.10" departSpeed="0.00" departDelay="0.00" arrival="181.00" arrivalLane="e4_0" arrivalPos="314.60" arrivalSpeed="14.21" duration="61.00" routeLength="644.90" waitingTime="0.00" waitingCount="0" stopTime="0.00" timeLoss="16.01" rerouteNo="0" devices="tripinfo_34_76" vType="car" speedFactor="1.03" vaporized=""/>
    <tripinfo id="43_68" depart="124.00" departLane="-e4_0" departPos="5.10" departSpeed="0.00" departDelay="14.00" arrival="182.00" arrivalLane="-e3_0" arrivalPos="314.60" arrivalSpeed="14.32" duration="58.00" routeLength="644.90" waitingTime="0.00" waitingCount="0" stopTime="0.00" timeLoss="13.25" rerouteNo="0" devices="tripinfo_43_68" vType="car" speedFactor="1.04" vaporized=""/>
    <tripinfo id="34_80" depart="125.00" departLane="e3_0" departPos="5.10" departSpeed="0.00" departDelay="0.00" arrival="183.00" arrivalLane="e4_0" arrivalPos="314.60" arrivalSpeed="14.36" duration="58.00" routeLength="644.90" waitingTime="0.00" waitingCount="0" stopTime="0.00" timeLoss="12.71" rerouteNo="0" devices="tripinfo_34_80" vType="car" speedFactor="1.03" vaporized=""/>
    <tripinfo id="42_66" depart="119.00" departLane="-e4_0" departPos="5.10" departSpeed="0.00" departDelay="11.00" arrival="186.00" arrivalLane="e2_0" arrivalPos="314.60" arrivalSpeed="12.52" duration="67.00" routeLength="633.13" waitingTime="0.00" waitingCount="0" stopTime="0.00" timeLoss="15.27" rerouteNo="0" devices="tripinfo_42_66" vType="car" speedFactor="0.91" vaporized=""/>
    <tripinfo id="41_12" depart="19.00" departLane="-e4_0" departPos="5.10" departSpeed="0.00" departDelay="5.00" arrival="198.00" arrivalLane="-e1_0" arrivalPos="314.60" arrivalSpeed="14.40" duration="179.00" routeLength="643.45" waitingTime="109.00" waitingCount="1" stopTime="0.00" timeLoss="133.98" rerouteNo="0" devices="tripinfo_41_12" vType="car" speedFactor="1.05" vaporized=""/>
    <tripinfo id="32_20" depart="29.00" departLane="e3_0" departPos="5.10" departSpeed="0.00" departDelay="6.00" arrival="198.00" arrivalLane="e2_1" arrivalPos="314.60" arrivalSpeed="14.09" duration="169.00" routeLength="643.45" waitingTime="98.00" waitingCount="1" stopTime="0.00" timeLoss="122.44" rerouteNo="0" devices="tripinfo_32_20" vType="car" speedFactor="1.02" vaporized=""/>
    <tripinfo id="42_74" depart="135.00" departLane="-e4_0" departPos="5.10" departSpeed="0.00" departDelay="19.00" arrival="199.00" arrivalLane="e2_0" arrivalPos="314.60" arrivalSpeed="13.07" duration="64.00" routeLength="633.13" waitingTime="0.00" waitingCount="0" stopTime="0.00" timeLoss="15.70" rerouteNo="0" devices="tripinfo_42_74" vType="car" speedFactor="0.96" vaporized=""/>
    <tripinfo id="41_22" depart="35.00" departLane="-e4_0" departPos="5.10" departSpeed="0.00" departDelay="10.00" arrival="201.00" arrivalLane="-e1_0" arrivalPos="314.60" arrivalSpeed="13.41" duration="166.00" routeLength="643.45" waitingTime="93.00" waitingCount="1" stopTime="0.00" timeLoss="117.37" rerouteNo="0" devices="tripinfo_41_22" vType="car" speedFactor="0.97" vaporized=""/>
    <tripinfo id="41_38" depart="56.00" departLane="-e4_0" departPos="5.10" departSpeed="0.00" departDelay="5.00" arrival="201.00" arrivalLane="-e1_1" arrivalPos="314.60" arrivalSpeed="15.21" duration="145.00" routeLength="643.45" waitingTime="77.00" waitingCount="2" stopTime="0.00" timeLoss="102.32" rerouteNo="0" devices="tripinfo_41_38" vType="car" speedFactor="1.10" vaporized=""/>
    <tripinfo id="32_29" depart="49.00" departLane="e3_0" departPos="5.10" departSpeed="0.00" departDelay="14.00" arrival="202.00" arrivalLane="e2_0" arrivalPos="314.60" arrivalSpeed="12.67" duration="153.00" routeLength="643.45" waitingTime="79.00" waitingCount="1" stopTime="0.00" timeLoss="102.09" rerouteNo="0" devices="tripinfo_32_29" vType="car" speedFactor="0.93" vaporized=""/>
    <tripinfo id="32_30" depart="54.00" departLane="e3_0" departPos="5.10" departSpeed="0.00" departDelay="18.00" arrival="203.00" arrivalLane="e2_1" arrivalPos="314.60" arrivalSpeed="13.71" duration="149.00" routeLength="643.45" waitingTime="78.00" waitingCount="1" stopTime="0.00" timeLoss="109.21" rerouteNo="0" devices="tripinfo_32_30" vType="car" speedFactor="1.18" vaporized=""/>
    <tripinfo id="32_32" depart="59.00" departLane="e3_0" departPos="5.10" departSpeed="0.00" departDelay="19.00" arrival="205.00" arrivalLane="e2_0" arrivalPos="314.60" arrivalSpeed="13.77" duration="146.00" routeLength="643.45" waitingTime="74.00" waitingCount="1" stopTime="0.00" timeLoss="98.76" rerouteNo="0" devices="tripinfo_32_32" vType="car" speedFactor="1.01" vaporized=""/>
    <tripinfo id="41_47" depart="68.00" departLane="-e4_0" departPos="5.10" departSpeed="0.00" departDelay="3.00" arrival="207.00" arrivalLane="-e1_0" arrivalPos="314.60" arrivalSpeed="12.22" duration="139.00" routeLength="643.45" waitingTime="63.00" waitingCount="1" stopTime="0.00" timeLoss="86.05" rerouteNo="0" devices="tripinfo_41_47" vType="car" speedFactor="0.90" vaporized=""/>
    <tripinfo id="41_63" depart="114.00" departLane="-e4_0" departPos="5.10" departSpeed="0.00" departDelay="10.00" arrival="207.00" arrivalLane="-e1_1" arrivalPos="314.60" arrivalSpeed="13.36" duration="93.00" routeLength="643.45" waitingTime="20.00" waitingCount="1" stopTime="0.00" timeLoss="44.79" rerouteNo="0" devices="tripinfo_41_63" vType="car" speedFactor="0.99" vaporized=""/>
    <tripinfo id="32_81" depart="130.00" departLane="e3_0" departPos="5.10" departSpeed="0.00" departDelay="2.00" arrival="207.00" arrivalLane="e2_0" arrivalPos="314.60" arrivalSpeed="13.85" duration="77.00" routeLength="643.45" waitingTime="3.00" waitingCount="1" stopTime="0.00" timeLoss="29.25" rerouteNo="0" devices="tripinfo_32_81" vType="car" speedFactor="1.00" vaporized=""/>
    <tripinfo id="41_73" depart="130.00" departLane="-e4_0" departPos="5.10" departSpeed="0.00" departDelay="14.00" arrival="208.00" arrivalLane="-e1_1" arrivalPos="314.60" arrivalSpeed="14.20" duration="78.00" routeLength="643.45" waitingTime="6.00" waitingCount="1" stopTime="0.00" timeLoss="33.62" rerouteNo="0" devices="tripinfo_41_73" vType="car" speedFactor="1.06" vaporized=""/>
    <tripinfo id="41_96" depart="160.00" departLane="-e4_0" departPos="5.10" departSpeed="0.00" departDelay="7.00" arrival="220.00" arrivalLane="-e1_0" arrivalPos="314.60" arrivalSpeed="13.78" duration="60.00" routeLength="643.45" waitingTime="0.00" waitingCount="0" stopTime="0.00" timeLoss="13.30" rerouteNo="0" devices="tripinfo_41_96" vType="car" speedFactor="1.01" vaporized=""/>
    <tripinfo id="41_103" depart="165.00" departLane="-e4_0" departPos="5.10" departSpeed="0.00" departDelay="2.00" arrival="228.00" arrivalLane="-e1_0" arrivalPos="314.60" arrivalSpeed="13.20" duration="63.00" routeLength="643.45" waitingTime="0.00" waitingCount="0" stopTime="0.00" timeLoss="12.98" rerouteNo="0" devices="tripinfo_41_103" vType="car" speedFactor="0.95" vaporized=""/>
    <tripinfo id="32_118" depart="180.00" departLane="e3_0" departPos="5.10" departSpeed="0.00" departDelay="4.00" arrival="241.00" arrivalLane="e2_0" arrivalPos="314.60" arrivalSpeed="13.76" duration="61.00" routeLength="643.45" waitingTime="0.00" waitingCount="0" stopTime="0.00" timeLoss="12.63" rerouteNo="0" devices="tripinfo_32_118" vType="car" speedFactor="0.99" vaporized=""/>
    <tripinfo id="21_62" depart="103.00" departLane="-e2_0" departPos="5.10" departSpeed="0.00" departDelay="0.00" arrival="252.00" arrivalLane="-e1_0" arrivalPos="314.60" arrivalSpeed="14.05" duration="149.00" routeLength="644.90" waitingTime="78.00" waitingCount="1" stopTime="0.00" timeLoss="102.83" rerouteNo="0" devices="tripinfo_21_62" vType="car" speedFactor="1.02" vaporized=""/>
    <tripinfo id="12_31" depart="40.00" departLane="e1_0" departPos="5.10" departSpeed="0.00" departDelay="1.00" arrival="253.00" arrivalLane="e2_1" arrivalPos="314.60" arrivalSpeed="15.68" duration="213.00" routeLength="644.90" waitingTime="144.00" waitingCount="1" stopTime="0.00" timeLoss="172.32" rerouteNo="0" devices="tripinfo_12_31" vType="car" speedFactor="1.15" vaporized=""/>
    <tripinfo id="14_37" depart="54.00" departLane="e1_0" departPos="5.10" departSpeed="0.00" departDelay="4.00" arrival="253.00" arrivalLane="e4_0" arrivalPos="314.60" arrivalSpeed="16.32" duration="199.00" routeLength="633.13" waitingTime="132.00" waitingCount="1" stopTime="0.00" timeLoss="159.66" rerouteNo="0" devices="tripinfo_14_37" vType="car" speedFactor="1.18" vaporized=""/>
    <tripinfo id="12_15" depart="25.00" departLane="e1_0" departPos="5.10" departSpeed="0.00" departDelay="6.00" arrival="254.00" arrivalLane="e2_0" arrivalPos="314.60" arrivalSpeed="12.62" duration="229.00" routeLength="644.90" waitingTime="156.00" waitingCount="1" stopTime="0.00" timeLoss="178.12" rerouteNo="0" devices="tripinfo_12_15" vType="car" speedFactor="0.93" vaporized=""/>
    <tripinfo id="23_67" depart="110.00" departLane="-e2_0" departPos="5.10" departSpeed="0.00" departDelay="0.00" arrival="256.00" arrivalLane="-e3_0" arrivalPos="314.60" arrivalSpeed="12.38" duration="146.00" routeLength="633.13" waitingTime="73.00" waitingCount="1" stopTime="0.00" timeLoss="94.60" rerouteNo="0" devices="tripinfo_23_67" vType="car" speedFactor="0.91" vaporized=""/>
    <tripinfo id="23_69" depart="115.00" departLane="-e2_0" departPos="5.10" departSpeed="0.00" departDelay="3.00" arrival="256.00" arrivalLane="-e3_1" arrivalPos="314.60" arrivalSpeed="14.00" duration="141.00" routeLength="633.13" waitingTime="70.00" waitingCount="1" stopTime="0.00" timeLoss="95.60" rerouteNo="0" devices="tripinfo_23_69" vType="car" speedFactor="1.02" vaporized=""/>
    <tripinfo id="14_57" depart="89.00" departLane="e1_0" departPos="5.10" departSpeed="0.00" departDelay="0.00" arrival="258.00" arrivalLane="e4_0" arrivalPos="314.60" arrivalSpeed="15.67" duration="169.00" routeLength="633.13" waitingTime="100.00" waitingCount="1" stopTime="0.00" timeLoss="128.36" rerouteNo="0" devices="tripinfo_14_57" vType="car" speedFactor="1.14" vaporized=""/>